+ 0.1 1 2 cbr 1000 ------- 2 1.0 5.1 0 0
- 0.1 1 2 cbr 1000 ------- 2 1.0 5.1 0 0
+ 0.101143 1 2 cbr 1000 ------- 2 1.0 5.1 1 1
- 0.101333 1 2 cbr 1000 ------- 2 1.0 5.1 1 1
+ 0.102286 1 2 cbr 1000 ------- 2 1.0 5.1 2 2
- 0.102667 1 2 cbr 1000 ------- 2 1.0 5.1 2 2
+ 0.103429 1 2 cbr 1000 ------- 2 1.0 5.1 3 3
- 0.104 1 2 cbr 1000 ------- 2 1.0 5.1 3 3
+ 0.104571 1 2 cbr 1000 ------- 2 1.0 5.1 4 4
- 0.105333 1 2 cbr 1000 ------- 2 1.0 5.1 4 4
+ 0.105714 1 2 cbr 1000 ------- 2 1.0 5.1 5 5
- 0.106667 1 2 cbr 1000 ------- 2 1.0 5.1 5 5
+ 0.106857 1 2 cbr 1000 ------- 2 1.0 5.1 6 6
+ 0.108 1 2 cbr 1000 ------- 2 1.0 5.1 7 7
- 0.108 1 2 cbr 1000 ------- 2 1.0 5.1 6 6
+ 0.109143 1 2 cbr 1000 ------- 2 1.0 5.1 8 8
- 0.109333 1 2 cbr 1000 ------- 2 1.0 5.1 7 7
+ 0.110286 1 2 cbr 1000 ------- 2 1.0 5.1 9 9
- 0.110667 1 2 cbr 1000 ------- 2 1.0 5.1 8 8
r 0.111333 1 2 cbr 1000 ------- 2 1.0 5.1 0 0
+ 0.111333 2 4 cbr 1000 ------- 2 1.0 5.1 0 0
- 0.111333 2 4 cbr 1000 ------- 2 1.0 5.1 0 0
+ 0.111429 1 2 cbr 1000 ------- 2 1.0 5.1 10 10
- 0.112 1 2 cbr 1000 ------- 2 1.0 5.1 9 9
+ 0.112571 1 2 cbr 1000 ------- 2 1.0 5.1 11 11
r 0.112667 1 2 cbr 1000 ------- 2 1.0 5.1 1 1
+ 0.112667 2 4 cbr 1000 ------- 2 1.0 5.1 1 1
- 0.112667 2 4 cbr 1000 ------- 2 1.0 5.1 1 1
- 0.113333 1 2 cbr 1000 ------- 2 1.0 5.1 10 10
+ 0.113714 1 2 cbr 1000 ------- 2 1.0 5.1 12 12
r 0.114 1 2 cbr 1000 ------- 2 1.0 5.1 2 2
+ 0.114 2 4 cbr 1000 ------- 2 1.0 5.1 2 2
- 0.114 2 4 cbr 1000 ------- 2 1.0 5.1 2 2
- 0.114667 1 2 cbr 1000 ------- 2 1.0 5.1 11 11
+ 0.114857 1 2 cbr 1000 ------- 2 1.0 5.1 13 13
r 0.115333 1 2 cbr 1000 ------- 2 1.0 5.1 3 3
+ 0.115333 2 4 cbr 1000 ------- 2 1.0 5.1 3 3
- 0.115333 2 4 cbr 1000 ------- 2 1.0 5.1 3 3
+ 0.116 1 2 cbr 1000 ------- 2 1.0 5.1 14 14
- 0.116 1 2 cbr 1000 ------- 2 1.0 5.1 12 12
r 0.116667 1 2 cbr 1000 ------- 2 1.0 5.1 4 4
+ 0.116667 2 4 cbr 1000 ------- 2 1.0 5.1 4 4
- 0.116667 2 4 cbr 1000 ------- 2 1.0 5.1 4 4
+ 0.117143 1 2 cbr 1000 ------- 2 1.0 5.1 15 15
- 0.117333 1 2 cbr 1000 ------- 2 1.0 5.1 13 13
r 0.118 1 2 cbr 1000 ------- 2 1.0 5.1 5 5
+ 0.118 2 4 cbr 1000 ------- 2 1.0 5.1 5 5
- 0.118 2 4 cbr 1000 ------- 2 1.0 5.1 5 5
+ 0.118286 1 2 cbr 1000 ------- 2 1.0 5.1 16 16
- 0.118667 1 2 cbr 1000 ------- 2 1.0 5.1 14 14
r 0.119333 1 2 cbr 1000 ------- 2 1.0 5.1 6 6
+ 0.119333 2 4 cbr 1000 ------- 2 1.0 5.1 6 6
- 0.119333 2 4 cbr 1000 ------- 2 1.0 5.1 6 6
+ 0.119429 1 2 cbr 1000 ------- 2 1.0 5.1 17 17
- 0.12 1 2 cbr 1000 ------- 2 1.0 5.1 15 15
+ 0.120571 1 2 cbr 1000 ------- 2 1.0 5.1 18 18
r 0.120667 1 2 cbr 1000 ------- 2 1.0 5.1 7 7
+ 0.120667 2 4 cbr 1000 ------- 2 1.0 5.1 7 7
- 0.120667 2 4 cbr 1000 ------- 2 1.0 5.1 7 7
- 0.121333 1 2 cbr 1000 ------- 2 1.0 5.1 16 16
+ 0.121714 1 2 cbr 1000 ------- 2 1.0 5.1 19 19
r 0.122 1 2 cbr 1000 ------- 2 1.0 5.1 8 8
+ 0.122 2 4 cbr 1000 ------- 2 1.0 5.1 8 8
- 0.122 2 4 cbr 1000 ------- 2 1.0 5.1 8 8
r 0.122667 2 4 cbr 1000 ------- 2 1.0 5.1 0 0
+ 0.122667 4 5 cbr 1000 ------- 2 1.0 5.1 0 0
- 0.122667 4 5 cbr 1000 ------- 2 1.0 5.1 0 0
- 0.122667 1 2 cbr 1000 ------- 2 1.0 5.1 17 17
+ 0.122857 1 2 cbr 1000 ------- 2 1.0 5.1 20 20
r 0.123333 1 2 cbr 1000 ------- 2 1.0 5.1 9 9
+ 0.123333 2 4 cbr 1000 ------- 2 1.0 5.1 9 9
- 0.123333 2 4 cbr 1000 ------- 2 1.0 5.1 9 9
+ 0.124 1 2 cbr 1000 ------- 2 1.0 5.1 21 21
r 0.124 2 4 cbr 1000 ------- 2 1.0 5.1 1 1
+ 0.124 4 5 cbr 1000 ------- 2 1.0 5.1 1 1
- 0.124 4 5 cbr 1000 ------- 2 1.0 5.1 1 1
- 0.124 1 2 cbr 1000 ------- 2 1.0 5.1 18 18
r 0.124667 1 2 cbr 1000 ------- 2 1.0 5.1 10 10
+ 0.124667 2 4 cbr 1000 ------- 2 1.0 5.1 10 10
- 0.124667 2 4 cbr 1000 ------- 2 1.0 5.1 10 10
+ 0.125143 1 2 cbr 1000 ------- 2 1.0 5.1 22 22
r 0.125333 2 4 cbr 1000 ------- 2 1.0 5.1 2 2
+ 0.125333 4 5 cbr 1000 ------- 2 1.0 5.1 2 2
- 0.125333 4 5 cbr 1000 ------- 2 1.0 5.1 2 2
- 0.125333 1 2 cbr 1000 ------- 2 1.0 5.1 19 19
r 0.126 1 2 cbr 1000 ------- 2 1.0 5.1 11 11
+ 0.126 2 4 cbr 1000 ------- 2 1.0 5.1 11 11
- 0.126 2 4 cbr 1000 ------- 2 1.0 5.1 11 11
+ 0.126286 1 2 cbr 1000 ------- 2 1.0 5.1 23 23
r 0.126667 2 4 cbr 1000 ------- 2 1.0 5.1 3 3
+ 0.126667 4 5 cbr 1000 ------- 2 1.0 5.1 3 3
- 0.126667 4 5 cbr 1000 ------- 2 1.0 5.1 3 3
- 0.126667 1 2 cbr 1000 ------- 2 1.0 5.1 20 20
r 0.127333 1 2 cbr 1000 ------- 2 1.0 5.1 12 12
+ 0.127333 2 4 cbr 1000 ------- 2 1.0 5.1 12 12
- 0.127333 2 4 cbr 1000 ------- 2 1.0 5.1 12 12
+ 0.127429 1 2 cbr 1000 ------- 2 1.0 5.1 24 24
r 0.128 2 4 cbr 1000 ------- 2 1.0 5.1 4 4
+ 0.128 4 5 cbr 1000 ------- 2 1.0 5.1 4 4
- 0.128 4 5 cbr 1000 ------- 2 1.0 5.1 4 4
- 0.128 1 2 cbr 1000 ------- 2 1.0 5.1 21 21
+ 0.128571 1 2 cbr 1000 ------- 2 1.0 5.1 25 25
r 0.128667 1 2 cbr 1000 ------- 2 1.0 5.1 13 13
+ 0.128667 2 4 cbr 1000 ------- 2 1.0 5.1 13 13
- 0.128667 2 4 cbr 1000 ------- 2 1.0 5.1 13 13
r 0.129333 2 4 cbr 1000 ------- 2 1.0 5.1 5 5
+ 0.129333 4 5 cbr 1000 ------- 2 1.0 5.1 5 5
- 0.129333 4 5 cbr 1000 ------- 2 1.0 5.1 5 5
- 0.129333 1 2 cbr 1000 ------- 2 1.0 5.1 22 22
+ 0.129714 1 2 cbr 1000 ------- 2 1.0 5.1 26 26
r 0.13 1 2 cbr 1000 ------- 2 1.0 5.1 14 14
+ 0.13 2 4 cbr 1000 ------- 2 1.0 5.1 14 14
- 0.13 2 4 cbr 1000 ------- 2 1.0 5.1 14 14
r 0.130667 2 4 cbr 1000 ------- 2 1.0 5.1 6 6
+ 0.130667 4 5 cbr 1000 ------- 2 1.0 5.1 6 6
- 0.130667 4 5 cbr 1000 ------- 2 1.0 5.1 6 6
- 0.130667 1 2 cbr 1000 ------- 2 1.0 5.1 23 23
+ 0.130857 1 2 cbr 1000 ------- 2 1.0 5.1 27 27
r 0.131333 1 2 cbr 1000 ------- 2 1.0 5.1 15 15
+ 0.131333 2 4 cbr 1000 ------- 2 1.0 5.1 15 15
- 0.131333 2 4 cbr 1000 ------- 2 1.0 5.1 15 15
+ 0.132 1 2 cbr 1000 ------- 2 1.0 5.1 28 28
r 0.132 2 4 cbr 1000 ------- 2 1.0 5.1 7 7
+ 0.132 4 5 cbr 1000 ------- 2 1.0 5.1 7 7
- 0.132 4 5 cbr 1000 ------- 2 1.0 5.1 7 7
- 0.132 1 2 cbr 1000 ------- 2 1.0 5.1 24 24
r 0.132667 1 2 cbr 1000 ------- 2 1.0 5.1 16 16
+ 0.132667 2 4 cbr 1000 ------- 2 1.0 5.1 16 16
- 0.132667 2 4 cbr 1000 ------- 2 1.0 5.1 16 16
+ 0.133143 1 2 cbr 1000 ------- 2 1.0 5.1 29 29
r 0.133333 2 4 cbr 1000 ------- 2 1.0 5.1 8 8
+ 0.133333 4 5 cbr 1000 ------- 2 1.0 5.1 8 8
- 0.133333 4 5 cbr 1000 ------- 2 1.0 5.1 8 8
- 0.133333 1 2 cbr 1000 ------- 2 1.0 5.1 25 25
r 0.134 4 5 cbr 1000 ------- 2 1.0 5.1 0 0
r 0.134 1 2 cbr 1000 ------- 2 1.0 5.1 17 17
+ 0.134 2 4 cbr 1000 ------- 2 1.0 5.1 17 17
- 0.134 2 4 cbr 1000 ------- 2 1.0 5.1 17 17
+ 0.134286 1 2 cbr 1000 ------- 2 1.0 5.1 30 30
r 0.134667 2 4 cbr 1000 ------- 2 1.0 5.1 9 9
+ 0.134667 4 5 cbr 1000 ------- 2 1.0 5.1 9 9
- 0.134667 4 5 cbr 1000 ------- 2 1.0 5.1 9 9
- 0.134667 1 2 cbr 1000 ------- 2 1.0 5.1 26 26
r 0.135333 4 5 cbr 1000 ------- 2 1.0 5.1 1 1
r 0.135333 1 2 cbr 1000 ------- 2 1.0 5.1 18 18
+ 0.135333 2 4 cbr 1000 ------- 2 1.0 5.1 18 18
- 0.135333 2 4 cbr 1000 ------- 2 1.0 5.1 18 18
+ 0.135429 1 2 cbr 1000 ------- 2 1.0 5.1 31 31
- 0.136 1 2 cbr 1000 ------- 2 1.0 5.1 27 27
r 0.136 2 4 cbr 1000 ------- 2 1.0 5.1 10 10
+ 0.136 4 5 cbr 1000 ------- 2 1.0 5.1 10 10
- 0.136 4 5 cbr 1000 ------- 2 1.0 5.1 10 10
+ 0.136571 1 2 cbr 1000 ------- 2 1.0 5.1 32 32
r 0.136667 4 5 cbr 1000 ------- 2 1.0 5.1 2 2
r 0.136667 1 2 cbr 1000 ------- 2 1.0 5.1 19 19
+ 0.136667 2 4 cbr 1000 ------- 2 1.0 5.1 19 19
- 0.136667 2 4 cbr 1000 ------- 2 1.0 5.1 19 19
- 0.137333 1 2 cbr 1000 ------- 2 1.0 5.1 28 28
r 0.137333 2 4 cbr 1000 ------- 2 1.0 5.1 11 11
+ 0.137333 4 5 cbr 1000 ------- 2 1.0 5.1 11 11
- 0.137333 4 5 cbr 1000 ------- 2 1.0 5.1 11 11
+ 0.137714 1 2 cbr 1000 ------- 2 1.0 5.1 33 33
r 0.138 4 5 cbr 1000 ------- 2 1.0 5.1 3 3
r 0.138 1 2 cbr 1000 ------- 2 1.0 5.1 20 20
+ 0.138 2 4 cbr 1000 ------- 2 1.0 5.1 20 20
- 0.138 2 4 cbr 1000 ------- 2 1.0 5.1 20 20
- 0.138667 1 2 cbr 1000 ------- 2 1.0 5.1 29 29
r 0.138667 2 4 cbr 1000 ------- 2 1.0 5.1 12 12
+ 0.138667 4 5 cbr 1000 ------- 2 1.0 5.1 12 12
- 0.138667 4 5 cbr 1000 ------- 2 1.0 5.1 12 12
+ 0.138857 1 2 cbr 1000 ------- 2 1.0 5.1 34 34
r 0.139333 4 5 cbr 1000 ------- 2 1.0 5.1 4 4
r 0.139333 1 2 cbr 1000 ------- 2 1.0 5.1 21 21
+ 0.139333 2 4 cbr 1000 ------- 2 1.0 5.1 21 21
- 0.139333 2 4 cbr 1000 ------- 2 1.0 5.1 21 21
+ 0.14 1 2 cbr 1000 ------- 2 1.0 5.1 35 35
- 0.14 1 2 cbr 1000 ------- 2 1.0 5.1 30 30
r 0.14 2 4 cbr 1000 ------- 2 1.0 5.1 13 13
+ 0.14 4 5 cbr 1000 ------- 2 1.0 5.1 13 13
- 0.14 4 5 cbr 1000 ------- 2 1.0 5.1 13 13
r 0.140667 4 5 cbr 1000 ------- 2 1.0 5.1 5 5
r 0.140667 1 2 cbr 1000 ------- 2 1.0 5.1 22 22
+ 0.140667 2 4 cbr 1000 ------- 2 1.0 5.1 22 22
- 0.140667 2 4 cbr 1000 ------- 2 1.0 5.1 22 22
+ 0.141143 1 2 cbr 1000 ------- 2 1.0 5.1 36 36
- 0.141333 1 2 cbr 1000 ------- 2 1.0 5.1 31 31
r 0.141333 2 4 cbr 1000 ------- 2 1.0 5.1 14 14
+ 0.141333 4 5 cbr 1000 ------- 2 1.0 5.1 14 14
- 0.141333 4 5 cbr 1000 ------- 2 1.0 5.1 14 14
r 0.142 4 5 cbr 1000 ------- 2 1.0 5.1 6 6
r 0.142 1 2 cbr 1000 ------- 2 1.0 5.1 23 23
+ 0.142 2 4 cbr 1000 ------- 2 1.0 5.1 23 23
- 0.142 2 4 cbr 1000 ------- 2 1.0 5.1 23 23
+ 0.142286 1 2 cbr 1000 ------- 2 1.0 5.1 37 37
- 0.142667 1 2 cbr 1000 ------- 2 1.0 5.1 32 32
r 0.142667 2 4 cbr 1000 ------- 2 1.0 5.1 15 15
+ 0.142667 4 5 cbr 1000 ------- 2 1.0 5.1 15 15
- 0.142667 4 5 cbr 1000 ------- 2 1.0 5.1 15 15
r 0.143333 4 5 cbr 1000 ------- 2 1.0 5.1 7 7
r 0.143333 1 2 cbr 1000 ------- 2 1.0 5.1 24 24
+ 0.143333 2 4 cbr 1000 ------- 2 1.0 5.1 24 24
- 0.143333 2 4 cbr 1000 ------- 2 1.0 5.1 24 24
+ 0.143429 1 2 cbr 1000 ------- 2 1.0 5.1 38 38
- 0.144 1 2 cbr 1000 ------- 2 1.0 5.1 33 33
r 0.144 2 4 cbr 1000 ------- 2 1.0 5.1 16 16
+ 0.144 4 5 cbr 1000 ------- 2 1.0 5.1 16 16
- 0.144 4 5 cbr 1000 ------- 2 1.0 5.1 16 16
+ 0.144571 1 2 cbr 1000 ------- 2 1.0 5.1 39 39
r 0.144667 4 5 cbr 1000 ------- 2 1.0 5.1 8 8
r 0.144667 1 2 cbr 1000 ------- 2 1.0 5.1 25 25
+ 0.144667 2 4 cbr 1000 ------- 2 1.0 5.1 25 25
- 0.144667 2 4 cbr 1000 ------- 2 1.0 5.1 25 25
- 0.145333 1 2 cbr 1000 ------- 2 1.0 5.1 34 34
r 0.145333 2 4 cbr 1000 ------- 2 1.0 5.1 17 17
+ 0.145333 4 5 cbr 1000 ------- 2 1.0 5.1 17 17
- 0.145333 4 5 cbr 1000 ------- 2 1.0 5.1 17 17
+ 0.145714 1 2 cbr 1000 ------- 2 1.0 5.1 40 40
r 0.146 4 5 cbr 1000 ------- 2 1.0 5.1 9 9
r 0.146 1 2 cbr 1000 ------- 2 1.0 5.1 26 26
+ 0.146 2 4 cbr 1000 ------- 2 1.0 5.1 26 26
- 0.146 2 4 cbr 1000 ------- 2 1.0 5.1 26 26
- 0.146667 1 2 cbr 1000 ------- 2 1.0 5.1 35 35
r 0.146667 2 4 cbr 1000 ------- 2 1.0 5.1 18 18
+ 0.146667 4 5 cbr 1000 ------- 2 1.0 5.1 18 18
- 0.146667 4 5 cbr 1000 ------- 2 1.0 5.1 18 18
+ 0.146857 1 2 cbr 1000 ------- 2 1.0 5.1 41 41
r 0.147333 1 2 cbr 1000 ------- 2 1.0 5.1 27 27
+ 0.147333 2 4 cbr 1000 ------- 2 1.0 5.1 27 27
- 0.147333 2 4 cbr 1000 ------- 2 1.0 5.1 27 27
r 0.147333 4 5 cbr 1000 ------- 2 1.0 5.1 10 10
+ 0.148 1 2 cbr 1000 ------- 2 1.0 5.1 42 42
- 0.148 1 2 cbr 1000 ------- 2 1.0 5.1 36 36
r 0.148 2 4 cbr 1000 ------- 2 1.0 5.1 19 19
+ 0.148 4 5 cbr 1000 ------- 2 1.0 5.1 19 19
- 0.148 4 5 cbr 1000 ------- 2 1.0 5.1 19 19
r 0.148667 1 2 cbr 1000 ------- 2 1.0 5.1 28 28
+ 0.148667 2 4 cbr 1000 ------- 2 1.0 5.1 28 28
- 0.148667 2 4 cbr 1000 ------- 2 1.0 5.1 28 28
r 0.148667 4 5 cbr 1000 ------- 2 1.0 5.1 11 11
+ 0.149143 1 2 cbr 1000 ------- 2 1.0 5.1 43 43
- 0.149333 1 2 cbr 1000 ------- 2 1.0 5.1 37 37
r 0.149333 2 4 cbr 1000 ------- 2 1.0 5.1 20 20
+ 0.149333 4 5 cbr 1000 ------- 2 1.0 5.1 20 20
- 0.149333 4 5 cbr 1000 ------- 2 1.0 5.1 20 20
r 0.15 1 2 cbr 1000 ------- 2 1.0 5.1 29 29
+ 0.15 2 4 cbr 1000 ------- 2 1.0 5.1 29 29
- 0.15 2 4 cbr 1000 ------- 2 1.0 5.1 29 29
r 0.15 4 5 cbr 1000 ------- 2 1.0 5.1 12 12
+ 0.150286 1 2 cbr 1000 ------- 2 1.0 5.1 44 44
- 0.150667 1 2 cbr 1000 ------- 2 1.0 5.1 38 38
r 0.150667 2 4 cbr 1000 ------- 2 1.0 5.1 21 21
+ 0.150667 4 5 cbr 1000 ------- 2 1.0 5.1 21 21
- 0.150667 4 5 cbr 1000 ------- 2 1.0 5.1 21 21
r 0.151333 1 2 cbr 1000 ------- 2 1.0 5.1 30 30
+ 0.151333 2 4 cbr 1000 ------- 2 1.0 5.1 30 30
- 0.151333 2 4 cbr 1000 ------- 2 1.0 5.1 30 30
r 0.151333 4 5 cbr 1000 ------- 2 1.0 5.1 13 13
+ 0.151429 1 2 cbr 1000 ------- 2 1.0 5.1 45 45
- 0.152 1 2 cbr 1000 ------- 2 1.0 5.1 39 39
r 0.152 2 4 cbr 1000 ------- 2 1.0 5.1 22 22
+ 0.152 4 5 cbr 1000 ------- 2 1.0 5.1 22 22
- 0.152 4 5 cbr 1000 ------- 2 1.0 5.1 22 22
+ 0.152571 1 2 cbr 1000 ------- 2 1.0 5.1 46 46
r 0.152667 1 2 cbr 1000 ------- 2 1.0 5.1 31 31
+ 0.152667 2 4 cbr 1000 ------- 2 1.0 5.1 31 31
- 0.152667 2 4 cbr 1000 ------- 2 1.0 5.1 31 31
r 0.152667 4 5 cbr 1000 ------- 2 1.0 5.1 14 14
- 0.153333 1 2 cbr 1000 ------- 2 1.0 5.1 40 40
r 0.153333 2 4 cbr 1000 ------- 2 1.0 5.1 23 23
+ 0.153333 4 5 cbr 1000 ------- 2 1.0 5.1 23 23
- 0.153333 4 5 cbr 1000 ------- 2 1.0 5.1 23 23
+ 0.153714 1 2 cbr 1000 ------- 2 1.0 5.1 47 47
r 0.154 1 2 cbr 1000 ------- 2 1.0 5.1 32 32
+ 0.154 2 4 cbr 1000 ------- 2 1.0 5.1 32 32
- 0.154 2 4 cbr 1000 ------- 2 1.0 5.1 32 32
r 0.154 4 5 cbr 1000 ------- 2 1.0 5.1 15 15
- 0.154667 1 2 cbr 1000 ------- 2 1.0 5.1 41 41
r 0.154667 2 4 cbr 1000 ------- 2 1.0 5.1 24 24
+ 0.154667 4 5 cbr 1000 ------- 2 1.0 5.1 24 24
- 0.154667 4 5 cbr 1000 ------- 2 1.0 5.1 24 24
+ 0.154857 1 2 cbr 1000 ------- 2 1.0 5.1 48 48
r 0.155333 1 2 cbr 1000 ------- 2 1.0 5.1 33 33
+ 0.155333 2 4 cbr 1000 ------- 2 1.0 5.1 33 33
- 0.155333 2 4 cbr 1000 ------- 2 1.0 5.1 33 33
r 0.155333 4 5 cbr 1000 ------- 2 1.0 5.1 16 16
+ 0.156 1 2 cbr 1000 ------- 2 1.0 5.1 49 49
- 0.156 1 2 cbr 1000 ------- 2 1.0 5.1 42 42
r 0.156 2 4 cbr 1000 ------- 2 1.0 5.1 25 25
+ 0.156 4 5 cbr 1000 ------- 2 1.0 5.1 25 25
- 0.156 4 5 cbr 1000 ------- 2 1.0 5.1 25 25
r 0.156667 1 2 cbr 1000 ------- 2 1.0 5.1 34 34
+ 0.156667 2 4 cbr 1000 ------- 2 1.0 5.1 34 34
- 0.156667 2 4 cbr 1000 ------- 2 1.0 5.1 34 34
r 0.156667 4 5 cbr 1000 ------- 2 1.0 5.1 17 17
+ 0.157143 1 2 cbr 1000 ------- 2 1.0 5.1 50 50
- 0.157333 1 2 cbr 1000 ------- 2 1.0 5.1 43 43
r 0.157333 2 4 cbr 1000 ------- 2 1.0 5.1 26 26
+ 0.157333 4 5 cbr 1000 ------- 2 1.0 5.1 26 26
- 0.157333 4 5 cbr 1000 ------- 2 1.0 5.1 26 26
r 0.158 1 2 cbr 1000 ------- 2 1.0 5.1 35 35
+ 0.158 2 4 cbr 1000 ------- 2 1.0 5.1 35 35
- 0.158 2 4 cbr 1000 ------- 2 1.0 5.1 35 35
r 0.158 4 5 cbr 1000 ------- 2 1.0 5.1 18 18
+ 0.158286 1 2 cbr 1000 ------- 2 1.0 5.1 51 51
- 0.158667 1 2 cbr 1000 ------- 2 1.0 5.1 44 44
r 0.158667 2 4 cbr 1000 ------- 2 1.0 5.1 27 27
+ 0.158667 4 5 cbr 1000 ------- 2 1.0 5.1 27 27
- 0.158667 4 5 cbr 1000 ------- 2 1.0 5.1 27 27
r 0.159333 1 2 cbr 1000 ------- 2 1.0 5.1 36 36
+ 0.159333 2 4 cbr 1000 ------- 2 1.0 5.1 36 36
- 0.159333 2 4 cbr 1000 ------- 2 1.0 5.1 36 36
r 0.159333 4 5 cbr 1000 ------- 2 1.0 5.1 19 19
+ 0.159429 1 2 cbr 1000 ------- 2 1.0 5.1 52 52
- 0.16 1 2 cbr 1000 ------- 2 1.0 5.1 45 45
r 0.16 2 4 cbr 1000 ------- 2 1.0 5.1 28 28
+ 0.16 4 5 cbr 1000 ------- 2 1.0 5.1 28 28
- 0.16 4 5 cbr 1000 ------- 2 1.0 5.1 28 28
+ 0.160571 1 2 cbr 1000 ------- 2 1.0 5.1 53 53
r 0.160667 1 2 cbr 1000 ------- 2 1.0 5.1 37 37
+ 0.160667 2 4 cbr 1000 ------- 2 1.0 5.1 37 37
- 0.160667 2 4 cbr 1000 ------- 2 1.0 5.1 37 37
r 0.160667 4 5 cbr 1000 ------- 2 1.0 5.1 20 20
- 0.161333 1 2 cbr 1000 ------- 2 1.0 5.1 46 46
r 0.161333 2 4 cbr 1000 ------- 2 1.0 5.1 29 29
+ 0.161333 4 5 cbr 1000 ------- 2 1.0 5.1 29 29
- 0.161333 4 5 cbr 1000 ------- 2 1.0 5.1 29 29
+ 0.161714 1 2 cbr 1000 ------- 2 1.0 5.1 54 54
r 0.162 1 2 cbr 1000 ------- 2 1.0 5.1 38 38
+ 0.162 2 4 cbr 1000 ------- 2 1.0 5.1 38 38
- 0.162 2 4 cbr 1000 ------- 2 1.0 5.1 38 38
r 0.162 4 5 cbr 1000 ------- 2 1.0 5.1 21 21
- 0.162667 1 2 cbr 1000 ------- 2 1.0 5.1 47 47
r 0.162667 2 4 cbr 1000 ------- 2 1.0 5.1 30 30
+ 0.162667 4 5 cbr 1000 ------- 2 1.0 5.1 30 30
- 0.162667 4 5 cbr 1000 ------- 2 1.0 5.1 30 30
+ 0.162857 1 2 cbr 1000 ------- 2 1.0 5.1 55 55
r 0.163333 1 2 cbr 1000 ------- 2 1.0 5.1 39 39
+ 0.163333 2 4 cbr 1000 ------- 2 1.0 5.1 39 39
- 0.163333 2 4 cbr 1000 ------- 2 1.0 5.1 39 39
r 0.163333 4 5 cbr 1000 ------- 2 1.0 5.1 22 22
+ 0.164 1 2 cbr 1000 ------- 2 1.0 5.1 56 56
- 0.164 1 2 cbr 1000 ------- 2 1.0 5.1 48 48
r 0.164 2 4 cbr 1000 ------- 2 1.0 5.1 31 31
+ 0.164 4 5 cbr 1000 ------- 2 1.0 5.1 31 31
- 0.164 4 5 cbr 1000 ------- 2 1.0 5.1 31 31
r 0.164667 1 2 cbr 1000 ------- 2 1.0 5.1 40 40
+ 0.164667 2 4 cbr 1000 ------- 2 1.0 5.1 40 40
- 0.164667 2 4 cbr 1000 ------- 2 1.0 5.1 40 40
r 0.164667 4 5 cbr 1000 ------- 2 1.0 5.1 23 23
+ 0.165143 1 2 cbr 1000 ------- 2 1.0 5.1 57 57
- 0.165333 1 2 cbr 1000 ------- 2 1.0 5.1 49 49
r 0.165333 2 4 cbr 1000 ------- 2 1.0 5.1 32 32
+ 0.165333 4 5 cbr 1000 ------- 2 1.0 5.1 32 32
- 0.165333 4 5 cbr 1000 ------- 2 1.0 5.1 32 32
r 0.166 1 2 cbr 1000 ------- 2 1.0 5.1 41 41
+ 0.166 2 4 cbr 1000 ------- 2 1.0 5.1 41 41
- 0.166 2 4 cbr 1000 ------- 2 1.0 5.1 41 41
r 0.166 4 5 cbr 1000 ------- 2 1.0 5.1 24 24
+ 0.166286 1 2 cbr 1000 ------- 2 1.0 5.1 58 58
- 0.166667 1 2 cbr 1000 ------- 2 1.0 5.1 50 50
r 0.166667 2 4 cbr 1000 ------- 2 1.0 5.1 33 33
+ 0.166667 4 5 cbr 1000 ------- 2 1.0 5.1 33 33
- 0.166667 4 5 cbr 1000 ------- 2 1.0 5.1 33 33
r 0.167333 1 2 cbr 1000 ------- 2 1.0 5.1 42 42
+ 0.167333 2 4 cbr 1000 ------- 2 1.0 5.1 42 42
- 0.167333 2 4 cbr 1000 ------- 2 1.0 5.1 42 42
r 0.167333 4 5 cbr 1000 ------- 2 1.0 5.1 25 25
+ 0.167429 1 2 cbr 1000 ------- 2 1.0 5.1 59 59
- 0.168 1 2 cbr 1000 ------- 2 1.0 5.1 51 51
r 0.168 2 4 cbr 1000 ------- 2 1.0 5.1 34 34
+ 0.168 4 5 cbr 1000 ------- 2 1.0 5.1 34 34
- 0.168 4 5 cbr 1000 ------- 2 1.0 5.1 34 34
+ 0.168571 1 2 cbr 1000 ------- 2 1.0 5.1 60 60
r 0.168667 1 2 cbr 1000 ------- 2 1.0 5.1 43 43
+ 0.168667 2 4 cbr 1000 ------- 2 1.0 5.1 43 43
- 0.168667 2 4 cbr 1000 ------- 2 1.0 5.1 43 43
r 0.168667 4 5 cbr 1000 ------- 2 1.0 5.1 26 26
- 0.169333 1 2 cbr 1000 ------- 2 1.0 5.1 52 52
r 0.169333 2 4 cbr 1000 ------- 2 1.0 5.1 35 35
+ 0.169333 4 5 cbr 1000 ------- 2 1.0 5.1 35 35
- 0.169333 4 5 cbr 1000 ------- 2 1.0 5.1 35 35
+ 0.169714 1 2 cbr 1000 ------- 2 1.0 5.1 61 61
r 0.17 1 2 cbr 1000 ------- 2 1.0 5.1 44 44
+ 0.17 2 4 cbr 1000 ------- 2 1.0 5.1 44 44
- 0.17 2 4 cbr 1000 ------- 2 1.0 5.1 44 44
r 0.17 4 5 cbr 1000 ------- 2 1.0 5.1 27 27
- 0.170667 1 2 cbr 1000 ------- 2 1.0 5.1 53 53
r 0.170667 2 4 cbr 1000 ------- 2 1.0 5.1 36 36
+ 0.170667 4 5 cbr 1000 ------- 2 1.0 5.1 36 36
- 0.170667 4 5 cbr 1000 ------- 2 1.0 5.1 36 36
+ 0.170857 1 2 cbr 1000 ------- 2 1.0 5.1 62 62
r 0.171333 1 2 cbr 1000 ------- 2 1.0 5.1 45 45
+ 0.171333 2 4 cbr 1000 ------- 2 1.0 5.1 45 45
- 0.171333 2 4 cbr 1000 ------- 2 1.0 5.1 45 45
r 0.171333 4 5 cbr 1000 ------- 2 1.0 5.1 28 28
- 0.172 1 2 cbr 1000 ------- 2 1.0 5.1 54 54
+ 0.172 1 2 cbr 1000 ------- 2 1.0 5.1 63 63
r 0.172 2 4 cbr 1000 ------- 2 1.0 5.1 37 37
+ 0.172 4 5 cbr 1000 ------- 2 1.0 5.1 37 37
- 0.172 4 5 cbr 1000 ------- 2 1.0 5.1 37 37
r 0.172667 1 2 cbr 1000 ------- 2 1.0 5.1 46 46
+ 0.172667 2 4 cbr 1000 ------- 2 1.0 5.1 46 46
- 0.172667 2 4 cbr 1000 ------- 2 1.0 5.1 46 46
r 0.172667 4 5 cbr 1000 ------- 2 1.0 5.1 29 29
+ 0.173143 1 2 cbr 1000 ------- 2 1.0 5.1 64 64
d 0.173143 1 2 cbr 1000 ------- 2 1.0 5.1 64 64
- 0.173333 1 2 cbr 1000 ------- 2 1.0 5.1 55 55
r 0.173333 2 4 cbr 1000 ------- 2 1.0 5.1 38 38
+ 0.173333 4 5 cbr 1000 ------- 2 1.0 5.1 38 38
- 0.173333 4 5 cbr 1000 ------- 2 1.0 5.1 38 38
r 0.174 1 2 cbr 1000 ------- 2 1.0 5.1 47 47
+ 0.174 2 4 cbr 1000 ------- 2 1.0 5.1 47 47
- 0.174 2 4 cbr 1000 ------- 2 1.0 5.1 47 47
r 0.174 4 5 cbr 1000 ------- 2 1.0 5.1 30 30
+ 0.174286 1 2 cbr 1000 ------- 2 1.0 5.1 65 65
- 0.174667 1 2 cbr 1000 ------- 2 1.0 5.1 56 56
r 0.174667 2 4 cbr 1000 ------- 2 1.0 5.1 39 39
+ 0.174667 4 5 cbr 1000 ------- 2 1.0 5.1 39 39
- 0.174667 4 5 cbr 1000 ------- 2 1.0 5.1 39 39
r 0.175333 1 2 cbr 1000 ------- 2 1.0 5.1 48 48
+ 0.175333 2 4 cbr 1000 ------- 2 1.0 5.1 48 48
- 0.175333 2 4 cbr 1000 ------- 2 1.0 5.1 48 48
r 0.175333 4 5 cbr 1000 ------- 2 1.0 5.1 31 31
+ 0.175429 1 2 cbr 1000 ------- 2 1.0 5.1 66 66
- 0.176 1 2 cbr 1000 ------- 2 1.0 5.1 57 57
r 0.176 2 4 cbr 1000 ------- 2 1.0 5.1 40 40
+ 0.176 4 5 cbr 1000 ------- 2 1.0 5.1 40 40
- 0.176 4 5 cbr 1000 ------- 2 1.0 5.1 40 40
+ 0.176571 1 2 cbr 1000 ------- 2 1.0 5.1 67 67
r 0.176667 1 2 cbr 1000 ------- 2 1.0 5.1 49 49
+ 0.176667 2 4 cbr 1000 ------- 2 1.0 5.1 49 49
- 0.176667 2 4 cbr 1000 ------- 2 1.0 5.1 49 49
r 0.176667 4 5 cbr 1000 ------- 2 1.0 5.1 32 32
- 0.177333 1 2 cbr 1000 ------- 2 1.0 5.1 58 58
r 0.177333 2 4 cbr 1000 ------- 2 1.0 5.1 41 41
+ 0.177333 4 5 cbr 1000 ------- 2 1.0 5.1 41 41
- 0.177333 4 5 cbr 1000 ------- 2 1.0 5.1 41 41
+ 0.177714 1 2 cbr 1000 ------- 2 1.0 5.1 68 68
r 0.178 1 2 cbr 1000 ------- 2 1.0 5.1 50 50
+ 0.178 2 4 cbr 1000 ------- 2 1.0 5.1 50 50
- 0.178 2 4 cbr 1000 ------- 2 1.0 5.1 50 50
r 0.178 4 5 cbr 1000 ------- 2 1.0 5.1 33 33
- 0.178667 1 2 cbr 1000 ------- 2 1.0 5.1 59 59
r 0.178667 2 4 cbr 1000 ------- 2 1.0 5.1 42 42
+ 0.178667 4 5 cbr 1000 ------- 2 1.0 5.1 42 42
- 0.178667 4 5 cbr 1000 ------- 2 1.0 5.1 42 42
+ 0.178857 1 2 cbr 1000 ------- 2 1.0 5.1 69 69
r 0.179333 1 2 cbr 1000 ------- 2 1.0 5.1 51 51
+ 0.179333 2 4 cbr 1000 ------- 2 1.0 5.1 51 51
- 0.179333 2 4 cbr 1000 ------- 2 1.0 5.1 51 51
r 0.179333 4 5 cbr 1000 ------- 2 1.0 5.1 34 34
- 0.18 1 2 cbr 1000 ------- 2 1.0 5.1 60 60
+ 0.18 1 2 cbr 1000 ------- 2 1.0 5.1 70 70
r 0.18 2 4 cbr 1000 ------- 2 1.0 5.1 43 43
+ 0.18 4 5 cbr 1000 ------- 2 1.0 5.1 43 43
- 0.18 4 5 cbr 1000 ------- 2 1.0 5.1 43 43
r 0.180667 1 2 cbr 1000 ------- 2 1.0 5.1 52 52
+ 0.180667 2 4 cbr 1000 ------- 2 1.0 5.1 52 52
- 0.180667 2 4 cbr 1000 ------- 2 1.0 5.1 52 52
r 0.180667 4 5 cbr 1000 ------- 2 1.0 5.1 35 35
+ 0.181143 1 2 cbr 1000 ------- 2 1.0 5.1 71 71
d 0.181143 1 2 cbr 1000 ------- 2 1.0 5.1 71 71
- 0.181333 1 2 cbr 1000 ------- 2 1.0 5.1 61 61
r 0.181333 2 4 cbr 1000 ------- 2 1.0 5.1 44 44
+ 0.181333 4 5 cbr 1000 ------- 2 1.0 5.1 44 44
- 0.181333 4 5 cbr 1000 ------- 2 1.0 5.1 44 44
r 0.182 1 2 cbr 1000 ------- 2 1.0 5.1 53 53
+ 0.182 2 4 cbr 1000 ------- 2 1.0 5.1 53 53
- 0.182 2 4 cbr 1000 ------- 2 1.0 5.1 53 53
r 0.182 4 5 cbr 1000 ------- 2 1.0 5.1 36 36
+ 0.182286 1 2 cbr 1000 ------- 2 1.0 5.1 72 72
- 0.182667 1 2 cbr 1000 ------- 2 1.0 5.1 62 62
r 0.182667 2 4 cbr 1000 ------- 2 1.0 5.1 45 45
+ 0.182667 4 5 cbr 1000 ------- 2 1.0 5.1 45 45
- 0.182667 4 5 cbr 1000 ------- 2 1.0 5.1 45 45
r 0.183333 1 2 cbr 1000 ------- 2 1.0 5.1 54 54
+ 0.183333 2 4 cbr 1000 ------- 2 1.0 5.1 54 54
- 0.183333 2 4 cbr 1000 ------- 2 1.0 5.1 54 54
r 0.183333 4 5 cbr 1000 ------- 2 1.0 5.1 37 37
+ 0.183429 1 2 cbr 1000 ------- 2 1.0 5.1 73 73
- 0.184 1 2 cbr 1000 ------- 2 1.0 5.1 63 63
r 0.184 2 4 cbr 1000 ------- 2 1.0 5.1 46 46
+ 0.184 4 5 cbr 1000 ------- 2 1.0 5.1 46 46
- 0.184 4 5 cbr 1000 ------- 2 1.0 5.1 46 46
+ 0.184571 1 2 cbr 1000 ------- 2 1.0 5.1 74 74
r 0.184667 1 2 cbr 1000 ------- 2 1.0 5.1 55 55
+ 0.184667 2 4 cbr 1000 ------- 2 1.0 5.1 55 55
- 0.184667 2 4 cbr 1000 ------- 2 1.0 5.1 55 55
r 0.184667 4 5 cbr 1000 ------- 2 1.0 5.1 38 38
- 0.185333 1 2 cbr 1000 ------- 2 1.0 5.1 65 65
r 0.185333 2 4 cbr 1000 ------- 2 1.0 5.1 47 47
+ 0.185333 4 5 cbr 1000 ------- 2 1.0 5.1 47 47
- 0.185333 4 5 cbr 1000 ------- 2 1.0 5.1 47 47
+ 0.185714 1 2 cbr 1000 ------- 2 1.0 5.1 75 75
r 0.186 1 2 cbr 1000 ------- 2 1.0 5.1 56 56
+ 0.186 2 4 cbr 1000 ------- 2 1.0 5.1 56 56
- 0.186 2 4 cbr 1000 ------- 2 1.0 5.1 56 56
r 0.186 4 5 cbr 1000 ------- 2 1.0 5.1 39 39
- 0.186667 1 2 cbr 1000 ------- 2 1.0 5.1 66 66
r 0.186667 2 4 cbr 1000 ------- 2 1.0 5.1 48 48
+ 0.186667 4 5 cbr 1000 ------- 2 1.0 5.1 48 48
- 0.186667 4 5 cbr 1000 ------- 2 1.0 5.1 48 48
+ 0.186857 1 2 cbr 1000 ------- 2 1.0 5.1 76 76
r 0.187333 1 2 cbr 1000 ------- 2 1.0 5.1 57 57
+ 0.187333 2 4 cbr 1000 ------- 2 1.0 5.1 57 57
- 0.187333 2 4 cbr 1000 ------- 2 1.0 5.1 57 57
r 0.187333 4 5 cbr 1000 ------- 2 1.0 5.1 40 40
- 0.188 1 2 cbr 1000 ------- 2 1.0 5.1 67 67
+ 0.188 1 2 cbr 1000 ------- 2 1.0 5.1 77 77
r 0.188 2 4 cbr 1000 ------- 2 1.0 5.1 49 49
+ 0.188 4 5 cbr 1000 ------- 2 1.0 5.1 49 49
- 0.188 4 5 cbr 1000 ------- 2 1.0 5.1 49 49
r 0.188667 1 2 cbr 1000 ------- 2 1.0 5.1 58 58
+ 0.188667 2 4 cbr 1000 ------- 2 1.0 5.1 58 58
- 0.188667 2 4 cbr 1000 ------- 2 1.0 5.1 58 58
r 0.188667 4 5 cbr 1000 ------- 2 1.0 5.1 41 41
+ 0.189143 1 2 cbr 1000 ------- 2 1.0 5.1 78 78
d 0.189143 1 2 cbr 1000 ------- 2 1.0 5.1 78 78
- 0.189333 1 2 cbr 1000 ------- 2 1.0 5.1 68 68
r 0.189333 2 4 cbr 1000 ------- 2 1.0 5.1 50 50
+ 0.189333 4 5 cbr 1000 ------- 2 1.0 5.1 50 50
- 0.189333 4 5 cbr 1000 ------- 2 1.0 5.1 50 50
r 0.19 1 2 cbr 1000 ------- 2 1.0 5.1 59 59
+ 0.19 2 4 cbr 1000 ------- 2 1.0 5.1 59 59
- 0.19 2 4 cbr 1000 ------- 2 1.0 5.1 59 59
r 0.19 4 5 cbr 1000 ------- 2 1.0 5.1 42 42
+ 0.190286 1 2 cbr 1000 ------- 2 1.0 5.1 79 79
- 0.190667 1 2 cbr 1000 ------- 2 1.0 5.1 69 69
r 0.190667 2 4 cbr 1000 ------- 2 1.0 5.1 51 51
+ 0.190667 4 5 cbr 1000 ------- 2 1.0 5.1 51 51
- 0.190667 4 5 cbr 1000 ------- 2 1.0 5.1 51 51
r 0.191333 1 2 cbr 1000 ------- 2 1.0 5.1 60 60
+ 0.191333 2 4 cbr 1000 ------- 2 1.0 5.1 60 60
- 0.191333 2 4 cbr 1000 ------- 2 1.0 5.1 60 60
r 0.191333 4 5 cbr 1000 ------- 2 1.0 5.1 43 43
+ 0.191429 1 2 cbr 1000 ------- 2 1.0 5.1 80 80
- 0.192 1 2 cbr 1000 ------- 2 1.0 5.1 70 70
r 0.192 2 4 cbr 1000 ------- 2 1.0 5.1 52 52
+ 0.192 4 5 cbr 1000 ------- 2 1.0 5.1 52 52
- 0.192 4 5 cbr 1000 ------- 2 1.0 5.1 52 52
+ 0.192571 1 2 cbr 1000 ------- 2 1.0 5.1 81 81
r 0.192667 1 2 cbr 1000 ------- 2 1.0 5.1 61 61
+ 0.192667 2 4 cbr 1000 ------- 2 1.0 5.1 61 61
- 0.192667 2 4 cbr 1000 ------- 2 1.0 5.1 61 61
r 0.192667 4 5 cbr 1000 ------- 2 1.0 5.1 44 44
- 0.193333 1 2 cbr 1000 ------- 2 1.0 5.1 72 72
r 0.193333 2 4 cbr 1000 ------- 2 1.0 5.1 53 53
+ 0.193333 4 5 cbr 1000 ------- 2 1.0 5.1 53 53
- 0.193333 4 5 cbr 1000 ------- 2 1.0 5.1 53 53
+ 0.193714 1 2 cbr 1000 ------- 2 1.0 5.1 82 82
r 0.194 1 2 cbr 1000 ------- 2 1.0 5.1 62 62
+ 0.194 2 4 cbr 1000 ------- 2 1.0 5.1 62 62
- 0.194 2 4 cbr 1000 ------- 2 1.0 5.1 62 62
r 0.194 4 5 cbr 1000 ------- 2 1.0 5.1 45 45
- 0.194667 1 2 cbr 1000 ------- 2 1.0 5.1 73 73
r 0.194667 2 4 cbr 1000 ------- 2 1.0 5.1 54 54
+ 0.194667 4 5 cbr 1000 ------- 2 1.0 5.1 54 54
- 0.194667 4 5 cbr 1000 ------- 2 1.0 5.1 54 54
+ 0.194857 1 2 cbr 1000 ------- 2 1.0 5.1 83 83
r 0.195333 1 2 cbr 1000 ------- 2 1.0 5.1 63 63
+ 0.195333 2 4 cbr 1000 ------- 2 1.0 5.1 63 63
- 0.195333 2 4 cbr 1000 ------- 2 1.0 5.1 63 63
r 0.195333 4 5 cbr 1000 ------- 2 1.0 5.1 46 46
- 0.196 1 2 cbr 1000 ------- 2 1.0 5.1 74 74
+ 0.196 1 2 cbr 1000 ------- 2 1.0 5.1 84 84
r 0.196 2 4 cbr 1000 ------- 2 1.0 5.1 55 55
+ 0.196 4 5 cbr 1000 ------- 2 1.0 5.1 55 55
- 0.196 4 5 cbr 1000 ------- 2 1.0 5.1 55 55
r 0.196667 1 2 cbr 1000 ------- 2 1.0 5.1 65 65
+ 0.196667 2 4 cbr 1000 ------- 2 1.0 5.1 65 65
- 0.196667 2 4 cbr 1000 ------- 2 1.0 5.1 65 65
r 0.196667 4 5 cbr 1000 ------- 2 1.0 5.1 47 47
+ 0.197143 1 2 cbr 1000 ------- 2 1.0 5.1 85 85
d 0.197143 1 2 cbr 1000 ------- 2 1.0 5.1 85 85
- 0.197333 1 2 cbr 1000 ------- 2 1.0 5.1 75 75
r 0.197333 2 4 cbr 1000 ------- 2 1.0 5.1 56 56
+ 0.197333 4 5 cbr 1000 ------- 2 1.0 5.1 56 56
- 0.197333 4 5 cbr 1000 ------- 2 1.0 5.1 56 56
r 0.198 1 2 cbr 1000 ------- 2 1.0 5.1 66 66
+ 0.198 2 4 cbr 1000 ------- 2 1.0 5.1 66 66
- 0.198 2 4 cbr 1000 ------- 2 1.0 5.1 66 66
r 0.198 4 5 cbr 1000 ------- 2 1.0 5.1 48 48
+ 0.198286 1 2 cbr 1000 ------- 2 1.0 5.1 86 86
- 0.198667 1 2 cbr 1000 ------- 2 1.0 5.1 76 76
r 0.198667 2 4 cbr 1000 ------- 2 1.0 5.1 57 57
+ 0.198667 4 5 cbr 1000 ------- 2 1.0 5.1 57 57
- 0.198667 4 5 cbr 1000 ------- 2 1.0 5.1 57 57
r 0.199333 1 2 cbr 1000 ------- 2 1.0 5.1 67 67
+ 0.199333 2 4 cbr 1000 ------- 2 1.0 5.1 67 67
- 0.199333 2 4 cbr 1000 ------- 2 1.0 5.1 67 67
r 0.199333 4 5 cbr 1000 ------- 2 1.0 5.1 49 49
+ 0.199429 1 2 cbr 1000 ------- 2 1.0 5.1 87 87
- 0.2 1 2 cbr 1000 ------- 2 1.0 5.1 77 77
r 0.2 2 4 cbr 1000 ------- 2 1.0 5.1 58 58
+ 0.2 4 5 cbr 1000 ------- 2 1.0 5.1 58 58
- 0.2 4 5 cbr 1000 ------- 2 1.0 5.1 58 58
+ 0.200571 1 2 cbr 1000 ------- 2 1.0 5.1 88 88
r 0.200667 1 2 cbr 1000 ------- 2 1.0 5.1 68 68
+ 0.200667 2 4 cbr 1000 ------- 2 1.0 5.1 68 68
- 0.200667 2 4 cbr 1000 ------- 2 1.0 5.1 68 68
r 0.200667 4 5 cbr 1000 ------- 2 1.0 5.1 50 50
- 0.201333 1 2 cbr 1000 ------- 2 1.0 5.1 79 79
r 0.201333 2 4 cbr 1000 ------- 2 1.0 5.1 59 59
+ 0.201333 4 5 cbr 1000 ------- 2 1.0 5.1 59 59
- 0.201333 4 5 cbr 1000 ------- 2 1.0 5.1 59 59
+ 0.201714 1 2 cbr 1000 ------- 2 1.0 5.1 89 89
r 0.202 1 2 cbr 1000 ------- 2 1.0 5.1 69 69
+ 0.202 2 4 cbr 1000 ------- 2 1.0 5.1 69 69
- 0.202 2 4 cbr 1000 ------- 2 1.0 5.1 69 69
r 0.202 4 5 cbr 1000 ------- 2 1.0 5.1 51 51
- 0.202667 1 2 cbr 1000 ------- 2 1.0 5.1 80 80
r 0.202667 2 4 cbr 1000 ------- 2 1.0 5.1 60 60
+ 0.202667 4 5 cbr 1000 ------- 2 1.0 5.1 60 60
- 0.202667 4 5 cbr 1000 ------- 2 1.0 5.1 60 60
+ 0.202857 1 2 cbr 1000 ------- 2 1.0 5.1 90 90
r 0.203333 1 2 cbr 1000 ------- 2 1.0 5.1 70 70
+ 0.203333 2 4 cbr 1000 ------- 2 1.0 5.1 70 70
- 0.203333 2 4 cbr 1000 ------- 2 1.0 5.1 70 70
r 0.203333 4 5 cbr 1000 ------- 2 1.0 5.1 52 52
- 0.204 1 2 cbr 1000 ------- 2 1.0 5.1 81 81
+ 0.204 1 2 cbr 1000 ------- 2 1.0 5.1 91 91
r 0.204 2 4 cbr 1000 ------- 2 1.0 5.1 61 61
+ 0.204 4 5 cbr 1000 ------- 2 1.0 5.1 61 61
- 0.204 4 5 cbr 1000 ------- 2 1.0 5.1 61 61
r 0.204667 1 2 cbr 1000 ------- 2 1.0 5.1 72 72
+ 0.204667 2 4 cbr 1000 ------- 2 1.0 5.1 72 72
- 0.204667 2 4 cbr 1000 ------- 2 1.0 5.1 72 72
r 0.204667 4 5 cbr 1000 ------- 2 1.0 5.1 53 53
+ 0.205143 1 2 cbr 1000 ------- 2 1.0 5.1 92 92
d 0.205143 1 2 cbr 1000 ------- 2 1.0 5.1 92 92
- 0.205333 1 2 cbr 1000 ------- 2 1.0 5.1 82 82
r 0.205333 2 4 cbr 1000 ------- 2 1.0 5.1 62 62
+ 0.205333 4 5 cbr 1000 ------- 2 1.0 5.1 62 62
- 0.205333 4 5 cbr 1000 ------- 2 1.0 5.1 62 62
r 0.206 1 2 cbr 1000 ------- 2 1.0 5.1 73 73
+ 0.206 2 4 cbr 1000 ------- 2 1.0 5.1 73 73
- 0.206 2 4 cbr 1000 ------- 2 1.0 5.1 73 73
r 0.206 4 5 cbr 1000 ------- 2 1.0 5.1 54 54
+ 0.206286 1 2 cbr 1000 ------- 2 1.0 5.1 93 93
- 0.206667 1 2 cbr 1000 ------- 2 1.0 5.1 83 83
r 0.206667 2 4 cbr 1000 ------- 2 1.0 5.1 63 63